/*--------------------------------*- C++ -*----------------------------------*\
  =========                 |
  \\      /  F ield         | OpenFOAM: The Open Source CFD Toolbox
   \\    /   O peration     | Website:  https://openfoam.org
    \\  /    A nd           | Version:  7
     \\/     M anipulation  |
\*---------------------------------------------------------------------------*/
FoamFile
{
    version     2.0;
    format      ascii;
    class       polyBoundaryMesh;
    location    "constant/polyMesh";
    object      boundary;
}
// * * * * * * * * * * * * * * * * * * * * * * * * * * * * * * * * * * * * * //

6
(
    chipWalls
    {
        type            wall;
        inGroups        List<word> 1(wall);
        nFaces          275;
        startFace       81525;
    }
    inletWalls
    {
        type            wall;
        inGroups        List<word> 1(wall);
        nFaces          200;
        startFace       81800;
    }
    outletWalls
    {
        type            wall;
        inGroups        List<word> 1(wall);
        nFaces          200;
        startFace       82000;
    }
    topWalls
    {
        type            wall;
        inGroups        List<word> 1(wall);
        nFaces          775;
        startFace       82200;
    }
    bottomWalls
    {
        type            wall;
        inGroups        List<word> 1(wall);
        nFaces          700;
        startFace       82975;
    }
    frontAndBack
    {
        type            empty;
        inGroups        List<word> 1(empty);
        nFaces          11800;
        startFace       83675;
    }
)

// ************************************************************************* //
